                  Welcome to Q-Chem
     A Quantum Leap Into The Future Of Chemistry


 Q-Chem 4.3, Q-Chem, Inc., Pleasanton, CA (2015)

 Y. Shao,  Z. Gan,  E. Epifanovsky,  A. T. B. Gilbert,  M. Wormit,  
 J. Kussmann,  A. W. Lange,  A. Behn,  J. Deng,  X. Feng,  D. Ghosh,  
 M. Goldey,  P. R. Horn,  L. D. Jacobson,  I. Kaliman,  R. Z. Khaliullin,  
 T. Kus,  A. Landau,  J. Liu,  E. I. Proynov,  Y. M. Rhee,  R. M. Richard,  
 M. A. Rohrdanz,  R. P. Steele,  E. J. Sundstrom,  H. L. Woodcock III,  
 P. M. Zimmerman,  D. Zuev,  B. Albrecht,  E. Alguire,  B. Austin,  
 S. A. Baeppler,  G. J. O. Beran,  Y. A. Bernard,  E. Berquist,  
 K. Brandhorst,  K. B. Bravaya,  S. T. Brown,  D. Casanova,  C.-M. Chang,  
 Y. Chen,  S. H. Chien,  K. D. Closser,  D. L. Crittenden,  M. Diedenhofen,  
 R. A. DiStasio Jr.,  H. Do,  A. D. Dutoi,  R. G. Edgar,  P.-T. Fang,  
 S. Fatehi,  Q. Feng,  L. Fusti-Molnar,  A. Ghysels,  
 A. Golubeva-Zadorozhnaya,  J. Gomes,  A. Gunina,  M. W. D. Hanson-Heine,  
 P. H. P. Harbach,  A. W. Hauser,  E. G. Hohenstein,  Z. C. Holden,  K. Hui,  
 T.-C. Jagau,  H. Ji,  B. Kaduk,  K. Khistyaev,  Jaehoon Kim,  Jihan Kim,  
 R. A. King,  P. Klunzinger,  D. Kosenkov,  T. Kowalczyk,  C. M. Krauter,  
 K. U. Lao,  A. Laurent,  K. V. Lawler,  S. Lehtola,  S. V. Levchenko,  
 C. Y. Lin,  Y.-S. Lin,  F. Liu,  E. Livshits,  R. C. Lochan,  A. Luenser,  
 P. Manohar,  S. F. Manzer,  S.-P. Mao,  N. Mardirossian,  A. V. Marenich,  
 L. A. Martinez-Martinez,  S. A. Maurer,  N. J. Mayhall,  K. Nanda,  
 C. M. Oana,  R. Olivares-Amaya,  D. P. O'Neill,  J. A. Parkhill,  
 T. M. Perrine,  R. Peverati,  P. A. Pieniazek,  F. Plasser,  A. Prociuk,  
 D. R. Rehn,  E. Rosta,  N. J. Russ,  N. Sergueev,  S. M. Sharada,  
 S. Sharma,  D. W. Small,  A. Sodt,  T. Stauch,  T. Stein,  D. Stuck,  
 Y.-C. Su,  A. J. W. Thom,  T. Tsuchimochi,  L. Vogt,  O. Vydrov,  T. Wang,  
 M. A. Watson,  J. Wenzel,  A. White,  C. F. Williams,  V. Vanovschi,  
 S. Yeganeh,  S. R. Yost,  Z.-Q. You,  I. Y. Zhang,  X. Zhang,  Y. Zhao,  
 B. R. Brooks,  G. K. L. Chan,  D. M. Chipman,  C. J. Cramer,  
 W. A. Goddard III,  M. S. Gordon,  W. J. Hehre,  A. Klamt,  
 H. F. Schaefer III,  M. W. Schmidt,  C. D. Sherrill,  D. G. Truhlar,  
 A. Warshel,  X. Xu,  A. Aspuru-Guzik,  R. Baer,  A. T. Bell,  N. A. Besley,  
 J.-D. Chai,  A. Dreuw,  B. D. Dunietz,  T. R. Furlani,  S. R. Gwaltney,  
 C.-P. Hsu,  Y. Jung,  J. Kong,  D. S. Lambrecht,  W. Liang,  C. Ochsenfeld,  
 V. A. Rassolov,  L. V. Slipchenko,  J. E. Subotnik,  T. Van Voorhis,  
 J. M. Herbert,  A. I. Krylov,  P. M. W. Gill,  M. Head-Gordon

 Contributors to earlier versions of Q-Chem not listed above: 
 R. D. Adamson,  J. Baker,  E. F. C. Byrd,  A. K. Chakraborty,  C.-L. Cheng,  
 H. Dachsel,  R. J. Doerksen,  G. Hawkins,  A. Heyden,  S. Hirata,  
 G. Kedziora,  F. J. Keil,  C. Kelley,  P. P. Korambath,  W. Kurlancheek,  
 A. M. Lee,  M. S. Lee,  D. Liotard,  I. Lotan,  P. E. Maslen,  N. Nair,  
 D. Neuhauser,  R. Olson,  B. Peters,  J. Ritchie,  N. E. Schultz,  
 N. Shenvi,  A. C. Simmonett,  K. S. Thanthiriwatte,  Q. Wu,  W. Zhang

 Please cite Q-Chem as follows:
 Y. Shao et al., Mol. Phys. 113, 184-215 (2015)
 DOI: 10.1080/00268976.2014.952696

 Q-Chem 4.3.0 for Intel X86 EM64T Linux

 Parts of Q-Chem use Armadillo 5.200.1 (Boston Tea Smuggler).
 http://arma.sourceforge.net/

 Q-Chem begins on Mon Nov 20 10:16:34 2017  


Host: 0

     Scratch files written to /home/nmayhall/.qchem_scratch/qchem25727//
 Sep717 |home|nmayhall|qcSoftware|qchem|qchem.svn-casman|libmdc|qstr_RNUM -1
 Using version located at /home/nmayhall/qcSoftware/qchem/qchem.svn-casman/bin/qchem


Total Memory Limit in MB = 2000
Mega-Array Size in MB = 62

Checking the input file for inconsistencies... 	...done.
Finally everything over in PARseQInput

--------------------------------------------------------------
User input:
--------------------------------------------------------------
$comment
TMM ground and excited states
$end 

$molecule
0 7
N
N 1 r1

r1 2.5
$end

$rem
  jobtype           sp
  method            rasci
  basis             cc-pvdz 
  max_scf_cycles    200
  scf_algorithm     dm
  unrestricted      false         ! RASCI only works with unrestricted orbitals
!RASCI
  set_iter	100
  RAS_ROOTS         4             ! Compute 9 states
  RAS_ELEC          6             ! Active electrons    (RAS2)
  RAS_ACT           6             ! Active orbitals     (RAS2)
! RAS_OCC           25            ! Doubly occ orbitals (RAS1)
  RAS_DO_HOLE       1          	  ! Compute hole contributions (RAS1 -> RAS2)
  RAS_DO_PART       1         	  ! Compute part contributions (RAS2 -> RAS3)
  RAS_SPIN_MULT     0             ! Compute any spin multiplicity
  RAS_NATORB        true          ! Compute natural orbital occupancies
! RAS_ACT_ORB       [26,27,28,29] ! Pick active orbitals
! RAS_NATORB_STATE  2             ! Save natural orbitals of state 2 in file 53.0
! RAS_GUESS_CS      1             ! Force (at least) 1 close shell guess
$end


--------------------------------------------------------------
 ----------------------------------------------------------------
             Standard Nuclear Orientation (Angstroms)
    I     Atom           X                Y                Z
 ----------------------------------------------------------------
    1      N       0.0000000000     0.0000000000    -1.2500000000
    2      N       0.0000000000     0.0000000000     1.2500000000
 ----------------------------------------------------------------
 Molecular Point Group                 D*h   NOp =***
 Largest Abelian Subgroup              D2h   NOp =  1
 Nuclear Repulsion Energy =    10.3718733317 hartrees
 There are       10 alpha and        4 beta electrons

 Q-Chem warning in module /home/nmayhall/qcSoftware/qchem/qchem.svn-casman/forms1/BasisType.C, line 1375:

 SAD: How to set up polarization functions for non-Pople basis?

 Requested basis set is cc-pVDZ
 There are 12 shells and 28 basis functions

Total QAlloc Memory Limit   2000 MB
Mega-Array Size        61 MB
MEM_STATIC part        62 MB

finished with qalloc call

                       Distance Matrix (Angstroms)
             N (  1)
   N (  2)  2.500000

 Job number = 2, Threshold = 1.00E-09
Integral type ranges set in mkLRange.C for JobNum: 2  <1-21|1-21>
Symmetry turned off temporarily
 Using the largest function pair in Schwarz integrals
Total number of integrals generated =            7958
Symmetry turned back on
 A cutoff of  1.0D-09 yielded     77 shell pairs
 There are       437 function pairs (       506 Cartesian)
 Job number = 11, Threshold = 1.00E-09
Integral type ranges set in mkLRange.C for JobNum: 11  <1-21|22-22>

 -------------------------------------------------------
 OpenMP Integral Computing Module                       
 Release: version 1.0, May 2013, Q-Chem Inc. Pittsburgh 
 -------------------------------------------------------
 Integral Job Info:
 Integral job number is                      11
 Integral operator is                         1
 short-range coefficients                     0
 long-range coefficients              100000000
 Omega coefficients                           0
 if combine SR and LR in K                    0
 Integral screening is                        0
 Integral computing path is                   2
 max size of driver memory is            800000
 size of driver memory is                593474
 size of scratch memory is              3179904
 max col of scratch BK array               1296
 max len of scratch array in speh3          155
 max len of scratch index in speh4           18
 max int batch size is                      520
 min int batch size is                       52
 fixed nKL is                                52
 max L of basis functions is                  2
 order of int derivative is                   0
 number of shells is                         12
 number of basis is                          30
 number of cartesian basis is                30
 number of contracted shell pairs            77
 number of primitive shell pairs            673
 maxK2 (contraction) of shell pair           49
 max number of K2 of shell pair               1
 max number of CS2 of shell pair             12
 max number of PS2 of shell pair            294
 mem total for path MDJ                   10888
 -------------------------------------------------------
 Smallest overlap matrix eigenvalue = 1.50E-01
 Multipole matrices computed through 2nd order

  Scale SEOQF with 1.000000e+00/1.000000e+00/1.000000e+00

 Standard Electronic Orientation quadrupole field applied
 Nucleus-field energy     =    -0.0000000234 hartrees
GuessMan:  IGuess = 101
 Constructing guess Fock matrix from core Hamiltonian
 Applying Wolfsberg-Helmholtz approximation
scfman initvdwdat 
 A restricted Hartree-Fock SCF calculation will be
 performed using direct minimization
 SCF converges when RMS gradient is below 1.0E-05
Finding J and K together
 Job number = 22, Threshold = 1.00E-09
Integral type ranges set in mkLRange.C for JobNum: 22  <1-21|1-21>
Approximate symmetry reduction factor = 1.000000
Storing 1417.45% of integrals
Total number of integrals generated =          131695
 MakeJK  time:  CPU       0.04 s  wall       0.04 s
Fock build time:  0.04 s (CPU) 0.04 s (wall)
 ---------------------------------------
  Cycle       Energy        RMS Gradient
 ---------------------------------------
    1    -108.5660765856      1.02E-01  00000
Finding J and K together
 Job number = 22, Threshold = 1.00E-09
Integral type ranges set in mkLRange.C for JobNum: 22  <1-21|1-21>
Approximate symmetry reduction factor = 1.000000
Storing 1417.45% of integrals
Reusing in-core integrals buffer for job 22
 MakeJK  time:  CPU       0.01 s  wall       0.01 s
Fock build time:  0.01 s (CPU) 0.01 s (wall)
    2    -108.7235271650      4.19E-02  00000
Finding J and K together
 Job number = 22, Threshold = 1.00E-09
Integral type ranges set in mkLRange.C for JobNum: 22  <1-21|1-21>
Approximate symmetry reduction factor = 1.000000
Storing 1417.45% of integrals
Reusing in-core integrals buffer for job 22
 MakeJK  time:  CPU       0.01 s  wall       0.01 s
Fock build time:  0.02 s (CPU) 0.02 s (wall)
    3    -108.7585912292      1.97E-02  00000
Finding J and K together
 Job number = 22, Threshold = 1.00E-09
Integral type ranges set in mkLRange.C for JobNum: 22  <1-21|1-21>
Approximate symmetry reduction factor = 1.000000
Storing 1417.45% of integrals
Reusing in-core integrals buffer for job 22
 MakeJK  time:  CPU       0.01 s  wall       0.01 s
Fock build time:  0.01 s (CPU) 0.01 s (wall)
    4    -108.7663458674      1.36E-03  00000
Finding J and K together
 Job number = 22, Threshold = 1.00E-09
Integral type ranges set in mkLRange.C for JobNum: 22  <1-21|1-21>
Approximate symmetry reduction factor = 1.000000
Storing 1417.45% of integrals
Reusing in-core integrals buffer for job 22
 MakeJK  time:  CPU       0.01 s  wall       0.01 s
Fock build time:  0.01 s (CPU) 0.01 s (wall)
    5    -108.7663789712      1.63E-04  00000
Finding J and K together
 Job number = 22, Threshold = 1.00E-09
Integral type ranges set in mkLRange.C for JobNum: 22  <1-21|1-21>
Approximate symmetry reduction factor = 1.000000
Storing 1417.45% of integrals
Reusing in-core integrals buffer for job 22
 MakeJK  time:  CPU       0.01 s  wall       0.01 s
Fock build time:  0.01 s (CPU) 0.01 s (wall)
    6    -108.7663796655      2.30E-05  00000
Finding J and K together
 Job number = 22, Threshold = 1.00E-09
Integral type ranges set in mkLRange.C for JobNum: 22  <1-21|1-21>
Approximate symmetry reduction factor = 1.000000
Storing 1417.45% of integrals
Reusing in-core integrals buffer for job 22
 MakeJK  time:  CPU       0.02 s  wall       0.02 s
Fock build time:  0.02 s (CPU) 0.02 s (wall)
    7    -108.7663796951      1.31E-05  00000
Finding J and K together
 Job number = 22, Threshold = 1.00E-09
Integral type ranges set in mkLRange.C for JobNum: 22  <1-21|1-21>
Approximate symmetry reduction factor = 1.000000
Storing 1417.45% of integrals
Reusing in-core integrals buffer for job 22
 MakeJK  time:  CPU       0.01 s  wall       0.01 s
Fock build time:  0.01 s (CPU) 0.01 s (wall)
    8    -108.7663797062      7.90E-06  00000 Convergence criterion met
 ---------------------------------------
 SCF time:  CPU 0.14 s  wall 0.15 s
 SCF   energy in the final basis set = -108.7663797062
 Total energy in the final basis set = -108.7663797062
Symmetry turned off temporarily
  
     ##========================================##
     ||                                        ||
     ||              R A S M A N 2             ||
     ||________________________________________||
     ||                                        ||
     ||  Author:                               ||
     ||                                        ||
     ||        David Casanova (2010)           ||
     ||                                        ||
     ##========================================##
  
  ***************************************************
  *  RAS-CI Dimensions:                             *
  *                                                 *
  *  Active Elec.:   6           Active Orb.:   6   *
  *  Doubly Occ. :   4           Doubly Vir.:  18   *
  *                                                 *
  *  Total CI configurations:     13600             * 
  *    Active configurations:       400             * 
  *      Hole configurations:      2400             * 
  *  Particle configurations:     10800             * 
  *                                                 *
  *   Requested states:        4                    *
  *  Spin multiplicity: Any multiplicity            *
  *                                                 *
  ***************************************************
 Each CI-vector requires      0.10376 MB 
 Max. subspace vectors            400      
  
Building Zero-order Fock matrix
 Job number = 22, Threshold = 1.00E-09
Integral type ranges set in mkLRange.C for JobNum: 22  <1-21|1-21>
Storing 1417.45% of integrals
Zero-order energy:            -99.9005852057
Computing J and K matrices
 Job number = 31, Threshold = 1.00E-09
Integral type ranges set in mkLRange.C for JobNum: 31  <1-21|1-21>
Storing 1417.45% of integrals
Making amplitude guesses
 NRoots was altered as:    4 -->    9
Direct CI diagonalization
 ---------------------------------------------------
 Iter    Rts Conv    Rts Left    Ttl Dev     Max Dev
 ---------------------------------------------------
   1         0           9      0.058647    0.011337
   2         0           9      0.032060    0.006778
   3         0           9      0.016114    0.003824
   4         0           9      0.013966    0.002019
   5         0           9      0.011542    0.002103
   6         0           9      0.008629    0.001824
   7         0           9      0.007984    0.001829
   8         0           9      0.009655    0.002625
   9         0           9      0.006648    0.001790
  10         0           9      0.006198    0.001506
  11         0           9      0.005363    0.001736
  12         0           9      0.004295    0.001147
  13         0           9      0.003957    0.001091
  14         0           9      0.003067    0.001547
  15         0           9      0.001857    0.000920
  16         0           9      0.001217    0.000605
  17         0           9      0.000740    0.000305
  18         0           9      0.000516    0.000165
  19         0           9      0.000428    0.000133
  20         0           9      0.000386    0.000171
  21         0           9      0.000307    0.000153
  22         0           9      0.000512    0.000341
  23         0           9      0.000478    0.000306
  24         2           7      0.000412    0.000252
  25         4           5      0.000202    0.000095
  26         4           5      0.000188    0.000087
  27         5           4      0.000161    0.000076
  28         5           4      0.000124    0.000061
  29         5           4      0.000091    0.000046
  30         5           4      0.000092    0.000051
  31         6           3      0.000087    0.000048
  32         6           3      0.000037    0.000019
  33         7           2      0.000021    0.000010
  34         7           2      0.000015    0.000007
  35         7           2      0.000009    0.000003
  36         9           0      0.000005    0.000001    Roots Converged
 ---------------------------------------------------
   
*******************************************
 RAS-CI total energy for state   1:   -108.780110376393
  Excitation energy (eV) =    0.0000
  Multiplicity: Singlet 
  Dipole Moment:  0.0000 X   0.0000 Y   0.0000 Z
  Amplitudes : 
  
 | HOLE  | ALPHA  | BETA   | PART  |    AMPLITUDE 
--------------------------------------------------
 |       | 111000 | 111000 |       |     0.35454
 |       | 111000 | 100110 |       |    -0.10064
 |       | 110100 | 101010 |       |    -0.20445
 |       | 110010 | 110010 |       |    -0.30906
 |       | 110010 | 101100 |       |    -0.10381
 |       | 110001 | 011010 |       |    -0.15905
 |       | 101100 | 110010 |       |    -0.10381
 |       | 101100 | 101100 |       |    -0.30906
 |       | 101010 | 110100 |       |    -0.20445
 |       | 101001 | 011100 |       |    -0.15905
 |       | 100110 | 111000 |       |    -0.10064
 |       | 100110 | 100110 |       |     0.27224
 |       | 100101 | 001110 |       |    -0.14225
 |       | 100011 | 010110 |       |    -0.14225
 |       | 011100 | 101001 |       |    -0.15905
 |       | 011010 | 110001 |       |    -0.15905
 |       | 011001 | 011001 |       |    -0.21579
 |       | 010110 | 100011 |       |    -0.14225
 |       | 010101 | 001011 |       |     0.12993
 |       | 010011 | 010011 |       |     0.19648
 |       | 001110 | 100101 |       |    -0.14225
 |       | 001101 | 001101 |       |     0.19648
 |       | 001011 | 010101 |       |     0.12993
 |       | 000111 | 000111 |       |    -0.18109
--------------------------------------------------
*** Contributions RASCI wfn    Active:  99.71
                                 Hole:   0.09
                                 Part:   0.20
  
*** NATURAL ORBITALS (OCCUPANCIES)
               1   2.0000
               2   2.0000
               3   1.9999
               4   1.9992
               5   1.3096
               6   1.0804
               7   1.0804
               8   0.9191
               9   0.9191
              10   0.6910
              11   0.0004
              12   0.0004
              13   0.0002
              14   0.0002
              15   0.0002
              16   0.0000
              17   0.0000
              18   0.0000
              19   0.0000
              20   0.0000
              21   0.0000
              22   0.0000
              23   0.0000
              24   0.0000
              25   0.0000
              26   0.0000
              27   0.0000
              28   0.0000
  
 Total Electrons: 14.0000
  
*******************************************
 RAS-CI total energy for state   2:   -108.778092438353
  Excitation energy (eV) =    0.0549
  Multiplicity: Triplet 
  Dipole Moment:  0.0000 X   0.0000 Y   0.0000 Z
  Trans. Moment: -0.0000 X   0.0000 Y   0.0000 Z
  Strength   :  0.000000
  Amplitudes : 
  
 | HOLE  | ALPHA  | BETA   | PART  |    AMPLITUDE 
--------------------------------------------------
 |       | 111000 | 110010 |       |    -0.25338
 |       | 111000 | 101100 |       |    -0.25338
 |       | 111000 | 011001 |       |    -0.18569
 |       | 110010 | 111000 |       |     0.25338
 |       | 110010 | 100110 |       |    -0.22201
 |       | 110010 | 010011 |       |     0.16546
 |       | 110010 | 001101 |       |     0.10261
 |       | 101100 | 111000 |       |     0.25338
 |       | 101100 | 100110 |       |    -0.22201
 |       | 101100 | 010011 |       |     0.10261
 |       | 101100 | 001101 |       |     0.16546
 |       | 100110 | 110010 |       |     0.22201
 |       | 100110 | 101100 |       |     0.22201
 |       | 100110 | 011001 |       |     0.10862
 |       | 100110 | 000111 |       |    -0.14889
 |       | 011001 | 111000 |       |     0.18569
 |       | 011001 | 100110 |       |    -0.10862
 |       | 011001 | 010011 |       |     0.15727
 |       | 011001 | 001101 |       |     0.15727
 |       | 010011 | 110010 |       |    -0.16546
 |       | 010011 | 101100 |       |    -0.10261
 |       | 010011 | 011001 |       |    -0.15727
 |       | 010011 | 000111 |       |     0.14410
 |       | 001101 | 110010 |       |    -0.10261
 |       | 001101 | 101100 |       |    -0.16546
 |       | 001101 | 011001 |       |    -0.15727
 |       | 001101 | 000111 |       |     0.14410
 |       | 000111 | 100110 |       |     0.14889
 |       | 000111 | 010011 |       |    -0.14410
 |       | 000111 | 001101 |       |    -0.14410
--------------------------------------------------
*** Contributions RASCI wfn    Active:  99.75
                                 Hole:   0.08
                                 Part:   0.17
  
*** NATURAL ORBITALS (OCCUPANCIES)
               1   2.0000
               2   2.0000
               3   1.9998
               4   1.9994
               5   1.2725
               6   1.0622
               7   1.0622
               8   0.9373
               9   0.9373
              10   0.7280
              11   0.0003
              12   0.0003
              13   0.0002
              14   0.0002
              15   0.0002
              16   0.0001
              17   0.0000
              18   0.0000
              19   0.0000
              20   0.0000
              21   0.0000
              22   0.0000
              23   0.0000
              24   0.0000
              25   0.0000
              26   0.0000
              27   0.0000
              28   0.0000
  
 Total Electrons: 14.0000
  
*******************************************
 RAS-CI total energy for state   3:   -108.676600945191
  Excitation energy (eV) =    2.8166
  Multiplicity: Triplet 
  Dipole Moment:  0.0000 X   0.0000 Y   0.0000 Z
  Trans. Moment:  0.0000 X   0.0000 Y  -0.0000 Z
  Strength   :  0.000000
  Amplitudes : 
  
 | HOLE  | ALPHA  | BETA   | PART  |    AMPLITUDE 
--------------------------------------------------
 |       | 111000 | 110100 |       |     0.14579
 |       | 111000 | 110010 |       |    -0.25054
 |       | 111000 | 101100 |       |     0.25054
 |       | 111000 | 101010 |       |     0.14579
 |       | 110100 | 111000 |       |    -0.14579
 |       | 110100 | 100110 |       |    -0.11982
 |       | 110010 | 111000 |       |     0.25054
 |       | 110010 | 100110 |       |     0.20591
 |       | 110001 | 001110 |       |    -0.14467
 |       | 101100 | 111000 |       |    -0.25054
 |       | 101100 | 100110 |       |    -0.20591
 |       | 101010 | 111000 |       |    -0.14579
 |       | 101010 | 100110 |       |    -0.11982
 |       | 101001 | 010110 |       |    -0.14467
 |       | 100110 | 110100 |       |     0.11982
 |       | 100110 | 110010 |       |    -0.20591
 |       | 100110 | 101100 |       |     0.20591
 |       | 100110 | 101010 |       |     0.11982
 |       | 100101 | 011010 |       |    -0.14447
 |       | 100011 | 011100 |       |    -0.14447
 |       | 011100 | 100011 |       |     0.14447
 |       | 011010 | 100101 |       |     0.14447
 |       | 011001 | 010011 |       |     0.14448
 |       | 011001 | 001101 |       |    -0.14448
 |       | 010110 | 101001 |       |     0.14467
 |       | 010011 | 011001 |       |    -0.14448
 |       | 010011 | 000111 |       |    -0.13348
 |       | 001110 | 110001 |       |     0.14467
 |       | 001101 | 011001 |       |     0.14448
 |       | 001101 | 000111 |       |     0.13348
 |       | 000111 | 010011 |       |     0.13348
 |       | 000111 | 001101 |       |    -0.13348
--------------------------------------------------
*** Contributions RASCI wfn    Active:  99.56
                                 Hole:   0.06
                                 Part:   0.38
  
*** NATURAL ORBITALS (OCCUPANCIES)
               1   2.0000
               2   2.0000
               3   1.9998
               4   1.9996
               5   1.3567
               6   1.0624
               7   1.0624
               8   0.9365
               9   0.9365
              10   0.6435
              11   0.0007
              12   0.0007
              13   0.0004
              14   0.0004
              15   0.0002
              16   0.0001
              17   0.0000
              18   0.0000
              19   0.0000
              20   0.0000
              21   0.0000
              22   0.0000
              23   0.0000
              24   0.0000
              25   0.0000
              26   0.0000
              27   0.0000
              28   0.0000
  
 Total Electrons: 14.0000
  
*******************************************
 RAS-CI total energy for state   4:   -108.676600943691
  Excitation energy (eV) =    2.8166
  Multiplicity: Triplet 
  Dipole Moment:  0.0000 X   0.0000 Y   0.0000 Z
  Trans. Moment:  0.0000 X  -0.0000 Y  -0.0000 Z
  Strength   :  0.000000
  Amplitudes : 
  
 | HOLE  | ALPHA  | BETA   | PART  |    AMPLITUDE 
--------------------------------------------------
 |       | 111000 | 110100 |       |     0.25054
 |       | 111000 | 110010 |       |     0.14579
 |       | 111000 | 101100 |       |    -0.14579
 |       | 111000 | 101010 |       |     0.25054
 |       | 110100 | 111000 |       |    -0.25054
 |       | 110100 | 100110 |       |    -0.20588
 |       | 110010 | 111000 |       |    -0.14579
 |       | 110010 | 100110 |       |    -0.11980
 |       | 110001 | 010110 |       |    -0.14469
 |       | 101100 | 111000 |       |     0.14579
 |       | 101100 | 100110 |       |     0.11980
 |       | 101010 | 111000 |       |    -0.25054
 |       | 101010 | 100110 |       |    -0.20588
 |       | 101001 | 001110 |       |     0.14469
 |       | 100110 | 110100 |       |     0.20588
 |       | 100110 | 110010 |       |     0.11980
 |       | 100110 | 101100 |       |    -0.11980
 |       | 100110 | 101010 |       |     0.20588
 |       | 100101 | 011100 |       |     0.14449
 |       | 100011 | 011010 |       |    -0.14449
 |       | 011100 | 100101 |       |    -0.14449
 |       | 011010 | 100011 |       |     0.14449
 |       | 011001 | 010101 |       |    -0.14449
 |       | 011001 | 001011 |       |    -0.14449
 |       | 010110 | 110001 |       |     0.14469
 |       | 010101 | 011001 |       |     0.14449
 |       | 010101 | 000111 |       |     0.13348
 |       | 001110 | 101001 |       |    -0.14469
 |       | 001011 | 011001 |       |     0.14449
 |       | 001011 | 000111 |       |     0.13348
 |       | 000111 | 010101 |       |    -0.13348
 |       | 000111 | 001011 |       |    -0.13348
--------------------------------------------------
*** Contributions RASCI wfn    Active:  99.56
                                 Hole:   0.06
                                 Part:   0.38
  
*** NATURAL ORBITALS (OCCUPANCIES)
               1   2.0000
               2   2.0000
               3   1.9998
               4   1.9996
               5   1.3566
               6   1.0624
               7   1.0624
               8   0.9364
               9   0.9364
              10   0.6436
              11   0.0007
              12   0.0007
              13   0.0004
              14   0.0004
              15   0.0002
              16   0.0001
              17   0.0000
              18   0.0000
              19   0.0000
              20   0.0000
              21   0.0000
              22   0.0000
              23   0.0000
              24   0.0000
              25   0.0000
              26   0.0000
              27   0.0000
              28   0.0000
  
 Total Electrons: 14.0000
  
*******************************************
 RAS-CI total energy for state   5:   -108.667185733994
  Excitation energy (eV) =    3.0728
  Multiplicity: Triplet 
  Dipole Moment:  0.0000 X   0.0000 Y   0.0000 Z
  Trans. Moment: -0.0000 X   0.0000 Y   0.0000 Z
  Strength   :  0.000000
  Amplitudes : 
  
 | HOLE  | ALPHA  | BETA   | PART  |    AMPLITUDE 
--------------------------------------------------
 |       | 111000 | 110010 |       |     0.15335
 |       | 111000 | 101100 |       |     0.15335
 |       | 111000 | 011001 |       |    -0.28772
 |       | 110100 | 001011 |       |     0.22588
 |       | 110010 | 111000 |       |    -0.15335
 |       | 110010 | 100110 |       |     0.12894
 |       | 110010 | 010011 |       |     0.25046
 |       | 101100 | 111000 |       |    -0.15335
 |       | 101100 | 100110 |       |     0.12894
 |       | 101100 | 001101 |       |     0.25046
 |       | 101010 | 010101 |       |     0.22588
 |       | 100110 | 110010 |       |    -0.12894
 |       | 100110 | 101100 |       |    -0.12894
 |       | 100110 | 000111 |       |    -0.22348
 |       | 011001 | 111000 |       |     0.28772
 |       | 010101 | 101010 |       |    -0.22588
 |       | 010011 | 110010 |       |    -0.25046
 |       | 001101 | 101100 |       |    -0.25046
 |       | 001011 | 110100 |       |    -0.22588
 |       | 000111 | 100110 |       |     0.22348
--------------------------------------------------
*** Contributions RASCI wfn    Active:  99.63
                                 Hole:   0.07
                                 Part:   0.30
  
*** NATURAL ORBITALS (OCCUPANCIES)
               1   2.0000
               2   2.0000
               3   1.9997
               4   1.9996
               5   1.1180
               6   1.0801
               7   1.0801
               8   0.9194
               9   0.9194
              10   0.8815
              11   0.0008
              12   0.0003
              13   0.0003
              14   0.0002
              15   0.0002
              16   0.0002
              17   0.0000
              18   0.0000
              19   0.0000
              20   0.0000
              21   0.0000
              22   0.0000
              23   0.0000
              24   0.0000
              25   0.0000
              26   0.0000
              27   0.0000
              28   0.0000
  
 Total Electrons: 14.0000
  
*******************************************
 RAS-CI total energy for state   6:   -108.609419379168
  Excitation energy (eV) =    4.6447
  Multiplicity: Triplet 
  Dipole Moment:  0.0000 X   0.0000 Y   0.0000 Z
  Trans. Moment: -0.0000 X  -0.0000 Y   0.0000 Z
  Strength   :  0.000000
  Amplitudes : 
  
 | HOLE  | ALPHA  | BETA   | PART  |    AMPLITUDE 
--------------------------------------------------
 |       | 111000 | 110100 |       |     0.30165
 |       | 111000 | 101010 |       |    -0.30165
 |       | 110100 | 111000 |       |    -0.30165
 |       | 110100 | 100110 |       |    -0.22632
 |       | 110001 | 010110 |       |    -0.16484
 |       | 101010 | 111000 |       |     0.30165
 |       | 101010 | 100110 |       |     0.22632
 |       | 101001 | 001110 |       |    -0.16484
 |       | 100110 | 110100 |       |     0.22632
 |       | 100110 | 101010 |       |    -0.22632
 |       | 100101 | 011100 |       |     0.16391
 |       | 100011 | 011010 |       |     0.16391
 |       | 011100 | 100101 |       |    -0.16391
 |       | 011010 | 100011 |       |    -0.16391
 |       | 011001 | 010101 |       |    -0.16511
 |       | 011001 | 001011 |       |     0.16511
 |       | 010110 | 110001 |       |     0.16484
 |       | 010101 | 011001 |       |     0.16511
 |       | 010101 | 000111 |       |     0.15313
 |       | 001110 | 101001 |       |     0.16484
 |       | 001011 | 011001 |       |    -0.16511
 |       | 001011 | 000111 |       |    -0.15313
 |       | 000111 | 010101 |       |    -0.15313
 |       | 000111 | 001011 |       |     0.15313
--------------------------------------------------
*** Contributions RASCI wfn    Active:  99.23
                                 Hole:   0.09
                                 Part:   0.69
  
*** NATURAL ORBITALS (OCCUPANCIES)
               1   2.0000
               2   2.0000
               3   1.9996
               4   1.9995
               5   1.3678
               6   1.0867
               7   1.0867
               8   0.9111
               9   0.9111
              10   0.6329
              11   0.0012
              12   0.0012
              13   0.0007
              14   0.0007
              15   0.0005
              16   0.0001
              17   0.0000
              18   0.0000
              19   0.0000
              20   0.0000
              21   0.0000
              22   0.0000
              23   0.0000
              24   0.0000
              25   0.0000
              26   0.0000
              27   0.0000
              28   0.0000
  
 Total Electrons: 14.0000
  
*******************************************
 RAS-CI total energy for state   7:   -108.586014513754
  Excitation energy (eV) =    5.2816
  Multiplicity: Singlet 
  Dipole Moment:  0.0000 X   0.0000 Y   0.0000 Z
  Trans. Moment: -0.0000 X   0.0000 Y   0.0000 Z
  Strength   :  0.000000
  Amplitudes : 
  
 | HOLE  | ALPHA  | BETA   | PART  |    AMPLITUDE 
--------------------------------------------------
 |       | 111000 | 111000 |       |     0.54967
 |       | 111000 | 100110 |       |     0.24376
 |       | 111000 | 010011 |       |    -0.10201
 |       | 111000 | 001101 |       |    -0.10201
 |       | 110100 | 110100 |       |    -0.23071
 |       | 110100 | 101010 |       |     0.21999
 |       | 101010 | 110100 |       |     0.21999
 |       | 101010 | 101010 |       |    -0.23071
 |       | 100110 | 111000 |       |     0.24376
 |       | 011001 | 000111 |       |    -0.15045
 |       | 010101 | 010101 |       |     0.13571
 |       | 010101 | 001011 |       |    -0.14192
 |       | 010011 | 111000 |       |    -0.10201
 |       | 001101 | 111000 |       |    -0.10201
 |       | 001011 | 010101 |       |    -0.14192
 |       | 001011 | 001011 |       |     0.13571
 |       | 000111 | 011001 |       |    -0.15045
 |       | 000111 | 000111 |       |    -0.20032
--------------------------------------------------
*** Contributions RASCI wfn    Active:  99.12
                                 Hole:   0.08
                                 Part:   0.80
  
*** NATURAL ORBITALS (OCCUPANCIES)
               1   2.0000
               2   2.0000
               3   1.9998
               4   1.9994
               5   1.4562
               6   1.2731
               7   1.2731
               8   0.7348
               9   0.7348
              10   0.5246
              11   0.0010
              12   0.0010
              13   0.0007
              14   0.0006
              15   0.0006
              16   0.0003
              17   0.0000
              18   0.0000
              19   0.0000
              20   0.0000
              21   0.0000
              22   0.0000
              23   0.0000
              24   0.0000
              25   0.0000
              26   0.0000
              27   0.0000
              28   0.0000
  
 Total Electrons: 14.0000
  
*******************************************
 RAS-CI total energy for state   8:   -108.584352841630
  Excitation energy (eV) =    5.3268
  Multiplicity: Singlet 
  Dipole Moment: -0.0000 X  -0.0000 Y   0.0000 Z
  Trans. Moment: -0.0000 X  -0.0000 Y   0.0000 Z
  Strength   :  0.000000
  Amplitudes : 
  
 | HOLE  | ALPHA  | BETA   | PART  |    AMPLITUDE 
--------------------------------------------------
 |       | 111000 | 110100 |       |     0.37583
 |       | 111000 | 101010 |       |    -0.37583
 |       | 110100 | 111000 |       |     0.37583
 |       | 110100 | 100110 |       |     0.18010
 |       | 101010 | 111000 |       |    -0.37583
 |       | 101010 | 100110 |       |    -0.18010
 |       | 100110 | 110100 |       |     0.18010
 |       | 100110 | 101010 |       |    -0.18010
 |       | 011001 | 010101 |       |    -0.14109
 |       | 011001 | 001011 |       |     0.14109
 |       | 010101 | 011001 |       |    -0.14109
 |       | 010101 | 000111 |       |    -0.17781
 |       | 001011 | 011001 |       |     0.14109
 |       | 001011 | 000111 |       |     0.17781
 |       | 000111 | 010101 |       |    -0.17781
 |       | 000111 | 001011 |       |     0.17781
--------------------------------------------------
*** Contributions RASCI wfn    Active:  99.22
                                 Hole:   0.03
                                 Part:   0.75
  
*** NATURAL ORBITALS (OCCUPANCIES)
               1   2.0000
               2   2.0000
               3   1.9998
               4   1.9998
               5   1.4828
               6   1.1980
               7   1.1980
               8   0.8075
               9   0.8075
              10   0.5025
              11   0.0010
              12   0.0010
              13   0.0006
              14   0.0006
              15   0.0005
              16   0.0001
              17   0.0000
              18   0.0000
              19   0.0000
              20   0.0000
              21   0.0000
              22   0.0000
              23   0.0000
              24   0.0000
              25   0.0000
              26   0.0000
              27   0.0000
              28   0.0000
  
 Total Electrons: 14.0000
  
*******************************************
 RAS-CI total energy for state   9:   -108.571560627315
  Excitation energy (eV) =    5.6749
  Multiplicity: Singlet 
  Dipole Moment:  0.0000 X   0.0000 Y   0.0000 Z
  Trans. Moment:  0.0000 X  -0.0000 Y  -0.0000 Z
  Strength   :  0.000000
  Amplitudes : 
  
 | HOLE  | ALPHA  | BETA   | PART  |    AMPLITUDE 
--------------------------------------------------
 |       | 111000 | 111000 |       |    -0.18315
 |       | 111000 | 100110 |       |     0.19710
 |       | 111000 | 010011 |       |     0.15790
 |       | 111000 | 001101 |       |     0.15790
 |       | 110100 | 110100 |       |    -0.14907
 |       | 110100 | 101010 |       |     0.25597
 |       | 110010 | 110010 |       |     0.16577
 |       | 110010 | 000111 |       |     0.14180
 |       | 110001 | 011010 |       |    -0.20468
 |       | 101100 | 101100 |       |     0.16577
 |       | 101100 | 000111 |       |     0.14180
 |       | 101010 | 110100 |       |     0.25597
 |       | 101010 | 101010 |       |    -0.14907
 |       | 101001 | 011100 |       |    -0.20468
 |       | 100110 | 111000 |       |     0.19710
 |       | 100110 | 100110 |       |     0.10009
 |       | 100101 | 001110 |       |    -0.18515
 |       | 100011 | 010110 |       |    -0.18515
 |       | 011100 | 101001 |       |    -0.20468
 |       | 011010 | 110001 |       |    -0.20468
 |       | 011001 | 011001 |       |    -0.11358
 |       | 011001 | 000111 |       |    -0.10086
 |       | 010110 | 100011 |       |    -0.18515
 |       | 010101 | 001011 |       |    -0.12050
 |       | 010011 | 111000 |       |     0.15790
 |       | 001110 | 100101 |       |    -0.18515
 |       | 001101 | 111000 |       |     0.15790
 |       | 001011 | 010101 |       |    -0.12050
 |       | 000111 | 110010 |       |     0.14180
 |       | 000111 | 101100 |       |     0.14180
 |       | 000111 | 011001 |       |    -0.10086
--------------------------------------------------
*** Contributions RASCI wfn    Active:  99.05
                                 Hole:   0.21
                                 Part:   0.74
  
*** NATURAL ORBITALS (OCCUPANCIES)
               1   2.0000
               2   2.0000
               3   1.9996
               4   1.9983
               5   1.2683
               6   1.0683
               7   1.0683
               8   0.9388
               9   0.9388
              10   0.7152
              11   0.0012
              12   0.0010
              13   0.0010
              14   0.0005
              15   0.0005
              16   0.0002
              17   0.0000
              18   0.0000
              19   0.0000
              20   0.0000
              21   0.0000
              22   0.0000
              23   0.0000
              24   0.0000
              25   0.0000
              26   0.0000
              27   0.0000
              28   0.0000
  
 Total Electrons: 14.0000
  
--------------------------------------------------
  
Symmetry turned back on
  Timing summary (seconds)
  CPU time         31.60s
  System time       0.00s
  Wall time        31.61s
*******************************************
CPU times for in RASMAN 
*******************************************
     Fock matrix        :       0.03 s
     Integrals          :       0.09 s
     Addressing matrices:       0.00 s
     Guesses            :       0.00 s
     Iterations         :      31.44 s
     Properties         :       0.04 s
*******************************************
Symmetry turned off temporarily
 Analysis of SCF Wavefunction

 --------------------------------------------------------------

                    Orbital Energies (a.u.)
 --------------------------------------------------------------

 Alpha MOs
 -- Occupied --
-19.064 -19.064  -3.393  -3.363  -2.445  -2.383  -2.383  -2.377
 -2.377  -2.399
 -- Virtual --
 -1.254  -1.254  -1.480  -1.073  -1.112  -1.112  -1.058  -0.931
 -0.420  -0.396  -0.396  -0.368  -0.368  -0.367  -0.367  -0.379
 -0.379  -0.267

 Beta MOs
 -- Occupied --
-19.064 -19.064  -3.393  -3.363
 -- Virtual --
 -2.445  -2.383  -2.383  -2.377  -2.377  -2.399  -1.254  -1.254
 -1.480  -1.073  -1.112  -1.112  -1.058  -0.931  -0.420  -0.396
 -0.396  -0.368  -0.368  -0.367  -0.367  -0.379  -0.379  -0.267
 --------------------------------------------------------------

          Ground-State Mulliken Net Atomic Charges

     Atom                 Charge (a.u.)
  ----------------------------------------
      1 N                    -0.000000
      2 N                    -0.000000
  ----------------------------------------
  Sum of atomic charges =    -0.000000

 -----------------------------------------------------------------
                    Cartesian Multipole Moments
 -----------------------------------------------------------------
    Charge (ESU x 10^10)
                -0.0000
    Dipole Moment (Debye)
         X      -0.0000      Y      -0.0000      Z      -0.0000
       Tot       0.0000
    Quadrupole Moments (Debye-Ang)
        XX     -10.6226     XY       0.0000     YY     -10.6226
        XZ      -0.0000     YZ      -0.0000     ZZ     -10.8973
    Octopole Moments (Debye-Ang^2)
       XXX      -0.0000    XXY      -0.0000    XYY      -0.0000
       YYY      -0.0000    XXZ      -0.0000    XYZ       0.0000
       YYZ      -0.0000    XZZ      -0.0000    YZZ      -0.0000
       ZZZ      -0.0000
    Hexadecapole Moments (Debye-Ang^3)
      XXXX      -8.6004   XXXY      -0.0000   XXYY      -2.8668
      XYYY      -0.0000   YYYY      -8.6004   XXXZ      -0.0000
      XXYZ      -0.0000   XYYZ      -0.0000   YYYZ      -0.0000
      XXZZ     -19.5639   XYZZ       0.0000   YYZZ     -19.5639
      XZZZ      -0.0000   YZZZ       0.0000   ZZZZ    -109.3065
 -----------------------------------------------------------------
 JobOver = TRUE
Archival summary:
1\1\sonicyouth\SP\ROProcedureUnspecified\BasisUnspecified\2(7)\nmayhall\MonNov2010:17:062017MonNov2010:17:062017\0\\#,ROProcedureUnspecified,BasisUnspecified,\\0,7\N\N,1,2.5\\HF=-99.9005852\\@

 Total job time:  31.87s(wall), 31.81s(cpu) 
 Mon Nov 20 10:17:06 2017

        *************************************************************
        *                                                           *
        *  Thank you very much for using Q-Chem.  Have a nice day.  *
        *                                                           *
        *************************************************************


*** MISSION COMPLETED -- STARFLEET OUT ***

