
Host: shannon-book.local

Timers On : Wed Nov 20 20:26:50 2019
Timers Off: Wed Nov 20 20:26:51 2019

Wall Time:        0.91 seconds

                                                       Time (seconds)
Module                                       User      System        Wall        Calls

--------------------------------------------------------------------------------------

**************************************************************************************

Host: shannon-book.local

Timers On : Wed Nov 20 20:35:34 2019
Timers Off: Wed Nov 20 20:35:35 2019

Wall Time:        0.82 seconds

                                                       Time (seconds)
Module                                       User      System        Wall        Calls

--------------------------------------------------------------------------------------

**************************************************************************************

Host: shannon-book.local

Timers On : Wed Nov 20 21:28:50 2019
Timers Off: Wed Nov 20 21:28:51 2019

Wall Time:        0.95 seconds

                                                       Time (seconds)
Module                                       User      System        Wall        Calls

--------------------------------------------------------------------------------------

**************************************************************************************

Host: shannon-book.local

Timers On : Thu Nov 21 14:50:14 2019
Timers Off: Thu Nov 21 14:50:15 2019

Wall Time:        1.04 seconds

                                                       Time (seconds)
Module                                       User      System        Wall        Calls

--------------------------------------------------------------------------------------

**************************************************************************************

Host: shannon-book.local

Timers On : Mon Mar 30 14:04:38 2020
Timers Off: Mon Mar 30 14:04:40 2020

Wall Time:        1.21 seconds

                                                       Time (seconds)
Module                                       User      System        Wall        Calls

--------------------------------------------------------------------------------------

**************************************************************************************

Host: shannon-book.local

Timers On : Mon Mar 30 14:05:48 2020
Timers Off: Mon Mar 30 14:05:49 2020

Wall Time:        1.08 seconds

                                                       Time (seconds)
Module                                       User      System        Wall        Calls

--------------------------------------------------------------------------------------

**************************************************************************************

Host: shannon-book.local

Timers On : Mon Mar 30 14:11:02 2020
Timers Off: Mon Mar 30 14:11:03 2020

Wall Time:        1.04 seconds

                                                       Time (seconds)
Module                                       User      System        Wall        Calls

--------------------------------------------------------------------------------------

**************************************************************************************
